 Entering Gaussian System
 *********************************************
 Gaussian 98:
 frequency output generated by the crest code
 *********************************************
                         Standard orientation:
 --------------------------------------------------------------------
  Center     Atomic     Atomic              Coordinates (Angstroms)
  Number     Number      Type              X           Y           Z
 --------------------------------------------------------------------
    1          7             0       -0.886343   -1.215497   -0.476901
    2          7             0       -1.703936   -0.412319   -0.422111
    3          7             0       -1.865118    0.832449   -0.163645
    4          6             0       -2.691965    1.118622    1.014664
    5          1             0       -2.215615    1.363617   -0.985137
    6          1             0       -2.237474    0.681062    1.900310
    7          1             0       -3.696622    0.713944    0.893632
    8          1             0       -2.778895    2.193228    1.143425
    9          6             0        0.891664    1.103919    0.197575
   10          6             0       -0.158647    1.760326    0.157875
   11          1             0       -0.636162    2.706878    0.235670
   12          6             0        2.331004    0.851669    0.371254
   13          1             0        2.871624    1.500483   -0.321781
   14          1             0        2.719326   -0.185406    0.196707
   15          1             0        2.600607    1.120603    1.394929
   16         29             0        0.965233   -0.898568   -0.165611
 --------------------------------------------------------------------
     1 basis functions        1 primitive gaussians
     1 alpha electrons        1 beta electrons

 Harmonic frequencies (cm**-1), IR intensities (km*mol⁻¹),
 Raman scattering activities (A**4/amu), Raman depolarization ratios,
 reduced masses (AMU), force constants (mDyne/A) and normal coordinates:
                      1                      2                      3
                        a                      a                      a 
 Frequencies --  -335.2821                75.3406                87.4971
 Red. masses --    99.0000                99.0000                99.0000
 Frc consts  --    99.0000                99.0000                99.0000
 IR Inten    --    99.0000                99.0000                99.0000
 Raman Activ --     0.0000                 0.0000                 0.0000
 Depolar     --     0.0000                 0.0000                 0.0000
 Atom AN      X      Y      Z        X      Y      Z        X      Y      Z
   1   7    -0.12  -0.09  -0.03     0.00  -0.09   0.37    -0.03  -0.07   0.07
   2   7     0.12   0.05   0.04    -0.01  -0.10   0.34    -0.03  -0.08   0.07
   3   7    -0.57  -0.26  -0.11     0.00  -0.04   0.05    -0.02  -0.05  -0.05
   4   6    -0.14  -0.06   0.03    -0.31   0.31  -0.26     0.32   0.03   0.18
   5   1    -0.09  -0.04  -0.04     0.07  -0.05  -0.05    -0.08  -0.04  -0.00
   6   1     0.01  -0.01  -0.01    -0.17   0.15  -0.01     0.19   0.05   0.03
   7   1    -0.07   0.02   0.10    -0.08   0.09  -0.13     0.09  -0.02   0.16
   8   1     0.01  -0.01  -0.02    -0.09   0.10  -0.16     0.08   0.01   0.02
   9   6     0.21   0.29   0.06    -0.00  -0.06   0.10    -0.06   0.03  -0.08
  10   6     0.40   0.37   0.04    -0.01  -0.07   0.16    -0.03   0.05  -0.41
  11   1    -0.10  -0.01  -0.06    -0.00  -0.02   0.07     0.01   0.03  -0.24
  12   6     0.13  -0.16   0.01     0.00  -0.03   0.12    -0.13  -0.03   0.47
  13   1     0.06  -0.06   0.01     0.00   0.11   0.15     0.05   0.12   0.32
  14   1    -0.01  -0.06  -0.01     0.03   0.03  -0.13    -0.00   0.03  -0.02
  15   1     0.05  -0.07   0.00    -0.03  -0.15   0.08    -0.18  -0.18   0.22
  16  29     0.03  -0.02  -0.01     0.18   0.01  -0.40    -0.03   0.05  -0.17
                      4                      5                      6
                        a                      a                      a 
 Frequencies --   152.4883               180.0606               191.0740
 Red. masses --    99.0000                99.0000                99.0000
 Frc consts  --    99.0000                99.0000                99.0000
 IR Inten    --    99.0000                99.0000                99.0000
 Raman Activ --     0.0000                 0.0000                 0.0000
 Depolar     --     0.0000                 0.0000                 0.0000
 Atom AN      X      Y      Z        X      Y      Z        X      Y      Z
   1   7     0.01  -0.02  -0.04    -0.03  -0.31   0.09    -0.01   0.02   0.10
   2   7    -0.02  -0.07   0.13     0.02  -0.25   0.00    -0.03   0.01   0.08
   3   7    -0.04  -0.06   0.04     0.24  -0.18  -0.07     0.00   0.02   0.08
   4   6     0.02   0.15   0.02     0.16  -0.08  -0.12    -0.12  -0.11   0.01
   5   1    -0.02  -0.04  -0.00     0.09  -0.05  -0.03     0.01   0.02   0.03
   6   1     0.05   0.14   0.03     0.03  -0.01  -0.02    -0.32  -0.47  -0.07
   7   1     0.02  -0.01   0.06     0.05  -0.02  -0.04    -0.18   0.41  -0.25
   8   1    -0.04   0.05  -0.08     0.05  -0.02  -0.05     0.38  -0.04   0.32
   9   6    -0.04  -0.03   0.12     0.20   0.00   0.10     0.04  -0.03  -0.09
  10   6    -0.02  -0.01  -0.06     0.12  -0.11   0.08     0.04  -0.02  -0.20
  11   1    -0.01  -0.00  -0.05     0.03  -0.03   0.05     0.05   0.02  -0.13
  12   6    -0.05  -0.01   0.22     0.18  -0.17  -0.01     0.02  -0.03   0.09
  13   1     0.00  -0.35  -0.25     0.06  -0.09  -0.03     0.03  -0.07  -0.01
  14   1    -0.09  -0.12   0.60     0.00  -0.07   0.01    -0.00  -0.03   0.12
  15   1     0.03   0.45  -0.07     0.09  -0.04  -0.01    -0.02   0.06   0.01
  16  29     0.08   0.01  -0.22    -0.45   0.54  -0.01     0.04   0.08  -0.04
                      7                      8                      9
                        a                      a                      a 
 Frequencies --   219.3003               246.2166               278.5267
 Red. masses --    99.0000                99.0000                99.0000
 Frc consts  --    99.0000                99.0000                99.0000
 IR Inten    --    99.0000                99.0000                99.0000
 Raman Activ --     0.0000                 0.0000                 0.0000
 Depolar     --     0.0000                 0.0000                 0.0000
 Atom AN      X      Y      Z        X      Y      Z        X      Y      Z
   1   7    -0.16  -0.17  -0.02    -0.02   0.05  -0.56     0.26  -0.12  -0.36
   2   7    -0.00  -0.03  -0.02    -0.17  -0.15   0.07     0.28  -0.13   0.18
   3   7     0.07  -0.04  -0.03    -0.14  -0.17   0.26     0.30  -0.13   0.26
   4   6     0.10   0.03  -0.03    -0.19   0.25   0.09    -0.01   0.13  -0.03
   5   1     0.04   0.00  -0.01    -0.01  -0.04   0.05     0.11  -0.06   0.03
   6   1    -0.00  -0.03  -0.01    -0.09   0.14   0.08    -0.11   0.03   0.04
   7   1     0.01   0.07  -0.02    -0.06   0.09   0.04    -0.02   0.10  -0.09
   8   1     0.09   0.01   0.01    -0.03   0.09  -0.07     0.05   0.05  -0.04
   9   6     0.15   0.10   0.10     0.16  -0.19  -0.16    -0.10   0.35  -0.07
  10   6     0.11   0.03   0.09     0.08  -0.30  -0.13    -0.09   0.34   0.04
  11   1    -0.01  -0.01   0.02     0.04  -0.08  -0.07    -0.05   0.09  -0.02
  12   6     0.24   0.64   0.13     0.20   0.06   0.04    -0.21  -0.05  -0.03
  13   1    -0.00   0.23   0.03     0.05   0.08   0.07     0.01  -0.04   0.02
  14   1     0.12   0.22   0.05     0.11   0.05  -0.04    -0.12  -0.04  -0.04
  15   1     0.04   0.23   0.03    -0.01  -0.02   0.04    -0.05  -0.07   0.00
  16  29    -0.26  -0.33  -0.11     0.05   0.16   0.16    -0.19  -0.17   0.02
                     10                     11                     12
                        a                      a                      a 
 Frequencies --   280.7177               359.0875               382.8016
 Red. masses --    99.0000                99.0000                99.0000
 Frc consts  --    99.0000                99.0000                99.0000
 IR Inten    --    99.0000                99.0000                99.0000
 Raman Activ --     0.0000                 0.0000                 0.0000
 Depolar     --     0.0000                 0.0000                 0.0000
 Atom AN      X      Y      Z        X      Y      Z        X      Y      Z
   1   7    -0.10  -0.14  -0.13    -0.25  -0.15   0.03     0.59   0.31   0.13
   2   7    -0.09  -0.14  -0.10    -0.12  -0.01  -0.06     0.27  -0.02   0.03
   3   7    -0.15  -0.15  -0.20     0.03   0.01  -0.05    -0.27  -0.10  -0.16
   4   6     0.35   0.33   0.02     0.08   0.02  -0.01     0.08   0.08   0.01
   5   1    -0.06  -0.05  -0.06     0.04   0.03  -0.01    -0.12  -0.07  -0.05
   6   1     0.07  -0.02  -0.04     0.03  -0.01  -0.01     0.05  -0.01  -0.03
   7   1    -0.00   0.33   0.07     0.01   0.02   0.01    -0.02   0.11   0.08
   8   1     0.35   0.11   0.04     0.04   0.01   0.01     0.12   0.03   0.00
   9   6    -0.18  -0.01   0.30     0.08   0.17  -0.68    -0.02  -0.18  -0.23
  10   6    -0.18  -0.04   0.21    -0.07  -0.02   0.40     0.00  -0.14   0.20
  11   1    -0.08  -0.03   0.09    -0.04  -0.03   0.24    -0.02  -0.06   0.12
  12   6    -0.15  -0.01  -0.13    -0.06  -0.03   0.11     0.03   0.05   0.04
  13   1    -0.12   0.03  -0.06     0.15  -0.07   0.10     0.02   0.03   0.03
  14   1    -0.03   0.01  -0.11    -0.03  -0.04   0.15     0.05   0.03   0.05
  15   1     0.05  -0.04  -0.05    -0.20   0.03   0.07    -0.07   0.05   0.02
  16  29     0.21   0.04   0.05     0.15   0.02   0.05    -0.32  -0.02  -0.03
                     13                     14                     15
                        a                      a                      a 
 Frequencies --   449.0690               545.5556               611.7482
 Red. masses --    99.0000                99.0000                99.0000
 Frc consts  --    99.0000                99.0000                99.0000
 IR Inten    --    99.0000                99.0000                99.0000
 Raman Activ --     0.0000                 0.0000                 0.0000
 Depolar     --     0.0000                 0.0000                 0.0000
 Atom AN      X      Y      Z        X      Y      Z        X      Y      Z
   1   7     0.15   0.23   0.09    -0.03   0.21  -0.29     0.20   0.30   0.13
   2   7    -0.22  -0.09  -0.07    -0.23  -0.08   0.69    -0.59  -0.42  -0.23
   3   7    -0.03   0.02  -0.02    -0.01   0.14  -0.28     0.09  -0.12   0.10
   4   6    -0.00   0.02   0.01     0.15  -0.19  -0.21     0.04  -0.01  -0.05
   5   1    -0.05   0.00   0.01    -0.02  -0.07  -0.14     0.05   0.01   0.04
   6   1     0.00  -0.00  -0.00     0.10  -0.12  -0.12    -0.01   0.01   0.01
   7   1     0.00   0.01   0.00     0.06  -0.09  -0.05     0.01   0.00  -0.02
   8   1    -0.01   0.01   0.01    -0.01  -0.08   0.07     0.00  -0.00  -0.04
   9   6     0.30   0.61   0.13     0.01  -0.01   0.03    -0.01  -0.07  -0.02
  10   6    -0.33  -0.35  -0.08     0.04   0.05  -0.01     0.23   0.37   0.11
  11   1    -0.06  -0.08  -0.01    -0.02  -0.01   0.17     0.08   0.12  -0.05
  12   6     0.15  -0.04   0.02     0.02   0.00  -0.01    -0.02   0.01   0.00
  13   1     0.15  -0.10   0.01     0.01   0.01   0.01    -0.02   0.01  -0.01
  14   1    -0.13  -0.08  -0.03     0.01   0.00  -0.01     0.01   0.01  -0.00
  15   1     0.13  -0.09   0.01     0.00  -0.01   0.00    -0.00   0.00   0.00
  16  29    -0.01  -0.14  -0.03     0.01  -0.02   0.04     0.02  -0.05  -0.01
                     16                     17                     18
                        a                      a                      a 
 Frequencies --   640.0248               825.2501               889.7146
 Red. masses --    99.0000                99.0000                99.0000
 Frc consts  --    99.0000                99.0000                99.0000
 IR Inten    --    99.0000                99.0000                99.0000
 Raman Activ --     0.0000                 0.0000                 0.0000
 Depolar     --     0.0000                 0.0000                 0.0000
 Atom AN      X      Y      Z        X      Y      Z        X      Y      Z
   1   7    -0.03   0.03  -0.04     0.03  -0.16  -0.04     0.09  -0.17  -0.04
   2   7     0.01   0.04   0.11     0.00  -0.13  -0.04     0.03  -0.13   0.02
   3   7    -0.00   0.04  -0.06     0.15   0.21  -0.17    -0.17   0.09  -0.15
   4   6     0.03  -0.05  -0.07    -0.12   0.07   0.14    -0.17   0.04   0.13
   5   1    -0.01  -0.03  -0.03    -0.77  -0.28   0.07     0.29   0.14  -0.10
   6   1     0.04  -0.00  -0.03    -0.10   0.02   0.07     0.11  -0.03  -0.06
   7   1     0.02  -0.04   0.00    -0.01  -0.01  -0.09    -0.05  -0.01   0.17
   8   1     0.01  -0.02  -0.01    -0.06   0.02   0.04     0.01   0.01   0.09
   9   6     0.01   0.01  -0.08    -0.02  -0.01  -0.01     0.01   0.08   0.01
  10   6    -0.07  -0.10   0.45    -0.05   0.12   0.06    -0.13  -0.01  -0.02
  11   1     0.09   0.11  -0.84     0.18   0.14   0.05     0.70   0.37   0.11
  12   6     0.00  -0.01   0.01     0.16  -0.02   0.03     0.03  -0.01   0.01
  13   1    -0.06   0.00  -0.04     0.05  -0.02  -0.00    -0.01   0.00  -0.01
  14   1     0.01   0.01  -0.05     0.02  -0.01  -0.01     0.05   0.01   0.01
  15   1     0.07   0.01  -0.02     0.08  -0.03   0.01     0.00   0.00   0.00
  16  29     0.00   0.01  -0.01     0.01  -0.01  -0.00    -0.00  -0.01  -0.00
                     19                     20                     21
                        a                      a                      a 
 Frequencies --   927.2648               935.9104               965.7738
 Red. masses --    99.0000                99.0000                99.0000
 Frc consts  --    99.0000                99.0000                99.0000
 IR Inten    --    99.0000                99.0000                99.0000
 Raman Activ --     0.0000                 0.0000                 0.0000
 Depolar     --     0.0000                 0.0000                 0.0000
 Atom AN      X      Y      Z        X      Y      Z        X      Y      Z
   1   7    -0.06   0.07   0.01     0.11  -0.12  -0.03     0.02  -0.00   0.00
   2   7     0.01   0.10   0.02    -0.02  -0.17  -0.02    -0.01  -0.02  -0.00
   3   7    -0.04  -0.08   0.13     0.12   0.16  -0.29     0.04   0.01  -0.04
   4   6     0.13  -0.12  -0.16    -0.24   0.20   0.31    -0.02   0.04   0.06
   5   1    -0.24  -0.05   0.11     0.12   0.02  -0.13     0.01   0.01  -0.01
   6   1    -0.06   0.06   0.05     0.05  -0.08  -0.04    -0.01  -0.02   0.00
   7   1     0.01   0.02  -0.06    -0.01  -0.06   0.05     0.01  -0.02  -0.03
   8   1     0.08  -0.01  -0.19    -0.15   0.02   0.29    -0.04   0.00   0.05
   9   6     0.30   0.08   0.06     0.17  -0.08   0.00     0.11   0.15  -0.21
  10   6     0.29  -0.24   0.00     0.28  -0.08   0.03     0.03  -0.03  -0.03
  11   1     0.36   0.05   0.07    -0.19  -0.16  -0.07    -0.06  -0.05   0.10
  12   6    -0.54   0.13  -0.05    -0.31   0.20  -0.00    -0.13  -0.23   0.35
  13   1    -0.13   0.01  -0.03     0.03  -0.07  -0.03    -0.59   0.10  -0.22
  14   1    -0.21   0.01  -0.04    -0.34  -0.05  -0.07     0.28   0.12  -0.20
  15   1    -0.13   0.01  -0.01     0.03  -0.07   0.00     0.35   0.17  -0.08
  16  29     0.00   0.01   0.00     0.01   0.01   0.00    -0.01  -0.00  -0.01
                     22                     23                     24
                        a                      a                      a 
 Frequencies --   971.4924              1066.8035              1085.2310
 Red. masses --    99.0000                99.0000                99.0000
 Frc consts  --    99.0000                99.0000                99.0000
 IR Inten    --    99.0000                99.0000                99.0000
 Raman Activ --     0.0000                 0.0000                 0.0000
 Depolar     --     0.0000                 0.0000                 0.0000
 Atom AN      X      Y      Z        X      Y      Z        X      Y      Z
   1   7     0.04  -0.01  -0.00     0.08  -0.15   0.00    -0.02  -0.01   0.02
   2   7    -0.03  -0.06  -0.01     0.04  -0.09  -0.07     0.01   0.02  -0.10
   3   7     0.09   0.05  -0.11    -0.35   0.09   0.28     0.09   0.10   0.36
   4   6    -0.06   0.09   0.11     0.32   0.27  -0.21    -0.20   0.04  -0.31
   5   1    -0.02  -0.01  -0.03    -0.03   0.03   0.05    -0.08  -0.39  -0.14
   6   1    -0.01  -0.03  -0.00    -0.04  -0.20  -0.12     0.40  -0.11  -0.37
   7   1     0.02  -0.04  -0.03     0.21  -0.20  -0.34    -0.11   0.02   0.39
   8   1    -0.08   0.01   0.11    -0.37  -0.02   0.35     0.10  -0.01   0.19
   9   6     0.14   0.18   0.18    -0.01  -0.01  -0.00     0.04   0.01   0.00
  10   6     0.07  -0.07   0.02    -0.01  -0.01   0.00     0.02  -0.00  -0.01
  11   1    -0.07  -0.06  -0.08     0.05   0.02  -0.00    -0.03  -0.02   0.02
  12   6    -0.12  -0.25  -0.28     0.00   0.01   0.00    -0.03  -0.01   0.00
  13   1    -0.09   0.20   0.13     0.01  -0.01  -0.00    -0.02   0.01  -0.00
  14   1     0.47   0.11   0.23    -0.01  -0.00  -0.00     0.02   0.01  -0.00
  15   1    -0.52   0.18   0.00     0.01  -0.01   0.00    -0.01   0.01  -0.00
  16  29    -0.02  -0.01  -0.00    -0.00   0.00  -0.00     0.00   0.00  -0.00
                     25                     26                     27
                        a                      a                      a 
 Frequencies --  1146.0758              1210.0312              1325.6970
 Red. masses --    99.0000                99.0000                99.0000
 Frc consts  --    99.0000                99.0000                99.0000
 IR Inten    --    99.0000                99.0000                99.0000
 Raman Activ --     0.0000                 0.0000                 0.0000
 Depolar     --     0.0000                 0.0000                 0.0000
 Atom AN      X      Y      Z        X      Y      Z        X      Y      Z
   1   7     0.15  -0.21  -0.04     0.12  -0.20  -0.02     0.00  -0.00   0.00
   2   7    -0.01  -0.21   0.08    -0.03  -0.16  -0.07     0.00  -0.00  -0.00
   3   7    -0.07   0.31   0.04    -0.25   0.59   0.17     0.00   0.01   0.01
   4   6    -0.05  -0.07  -0.23     0.14  -0.24   0.06    -0.00  -0.00  -0.00
   5   1    -0.19   0.60   0.43     0.17  -0.25  -0.33     0.00  -0.00  -0.00
   6   1     0.10   0.05  -0.08    -0.11   0.13   0.18     0.00   0.00  -0.00
   7   1    -0.09   0.09   0.23    -0.06   0.18  -0.06    -0.00   0.00   0.00
   8   1     0.10  -0.01  -0.04     0.04  -0.02  -0.27    -0.00  -0.00   0.00
   9   6     0.03  -0.00   0.00     0.05   0.00   0.01     0.01   0.02  -0.07
  10   6     0.03   0.01   0.00     0.03   0.00   0.00    -0.00  -0.00   0.00
  11   1    -0.15  -0.07  -0.03    -0.10  -0.05  -0.01    -0.00  -0.00   0.00
  12   6    -0.01  -0.01  -0.00    -0.03  -0.02  -0.00     0.04   0.06  -0.16
  13   1    -0.01   0.01   0.00    -0.01   0.01   0.00    -0.33   0.37   0.06
  14   1     0.02   0.00   0.00     0.02   0.01  -0.00    -0.09  -0.14   0.63
  15   1    -0.01   0.01  -0.00    -0.01   0.01  -0.00     0.25  -0.47   0.04
  16  29    -0.00   0.00   0.00    -0.00   0.00  -0.00    -0.00  -0.00   0.00
                     28                     29                     30
                        a                      a                      a 
 Frequencies --  1354.3222              1377.8921              1388.1520
 Red. masses --    99.0000                99.0000                99.0000
 Frc consts  --    99.0000                99.0000                99.0000
 IR Inten    --    99.0000                99.0000                99.0000
 Raman Activ --     0.0000                 0.0000                 0.0000
 Depolar     --     0.0000                 0.0000                 0.0000
 Atom AN      X      Y      Z        X      Y      Z        X      Y      Z
   1   7     0.00  -0.00  -0.00     0.00  -0.00   0.00     0.02  -0.03  -0.00
   2   7    -0.00  -0.00  -0.00     0.00   0.01   0.00    -0.01  -0.03  -0.00
   3   7     0.00   0.01   0.00    -0.01  -0.01   0.00    -0.08   0.05   0.07
   4   6     0.00  -0.00  -0.00    -0.01   0.00   0.01    -0.23   0.04   0.18
   5   1     0.00  -0.00  -0.00    -0.00   0.00   0.00    -0.01   0.04   0.03
   6   1    -0.01  -0.00   0.00     0.02   0.00  -0.01     0.43   0.05  -0.19
   7   1    -0.00   0.00   0.01     0.01  -0.02  -0.03     0.15  -0.27  -0.56
   8   1    -0.01  -0.00  -0.00     0.03   0.00  -0.01     0.47   0.07  -0.19
   9   6     0.00   0.02   0.01     0.01   0.01   0.01     0.00  -0.00   0.00
  10   6    -0.01   0.00  -0.00     0.02  -0.01   0.00     0.00   0.01  -0.00
  11   1    -0.01  -0.00  -0.00    -0.02  -0.01  -0.01    -0.03  -0.01   0.01
  12   6     0.30   0.12   0.09    -0.27   0.19   0.01     0.02  -0.01   0.00
  13   1    -0.38  -0.19  -0.50     0.24  -0.41  -0.21    -0.02   0.02   0.01
  14   1    -0.12  -0.04  -0.08     0.56   0.23   0.11    -0.03  -0.01  -0.01
  15   1    -0.54  -0.29   0.24     0.17  -0.45   0.07    -0.02   0.02  -0.00
  16  29     0.00   0.00   0.00    -0.01  -0.01  -0.00     0.00   0.00   0.00
                     31                     32                     33
                        a                      a                      a 
 Frequencies --  1409.9827              1415.4545              1977.5598
 Red. masses --    99.0000                99.0000                99.0000
 Frc consts  --    99.0000                99.0000                99.0000
 IR Inten    --    99.0000                99.0000                99.0000
 Raman Activ --     0.0000                 0.0000                 0.0000
 Depolar     --     0.0000                 0.0000                 0.0000
 Atom AN      X      Y      Z        X      Y      Z        X      Y      Z
   1   7     0.02  -0.03  -0.00    -0.00   0.00  -0.00    -0.10   0.11   0.01
   2   7    -0.02  -0.01  -0.00     0.00   0.01   0.02     0.10  -0.18  -0.02
   3   7    -0.03   0.09   0.02     0.04  -0.02   0.01     0.04   0.08   0.01
   4   6    -0.01   0.20  -0.03     0.06   0.06   0.23    -0.01   0.00   0.01
   5   1     0.01  -0.02  -0.04    -0.03   0.03   0.05    -0.00  -0.00   0.00
   6   1    -0.42  -0.39   0.01     0.16  -0.52  -0.31    -0.00  -0.00   0.00
   7   1     0.19  -0.54   0.34    -0.09   0.24  -0.02     0.00  -0.01  -0.00
   8   1     0.33   0.08  -0.25    -0.38   0.05  -0.57     0.00   0.00  -0.00
   9   6     0.01  -0.00  -0.00    -0.00   0.00  -0.00    -0.66   0.34  -0.04
  10   6     0.00   0.00  -0.00    -0.00  -0.00   0.00     0.47  -0.31   0.02
  11   1    -0.03  -0.01   0.00     0.00   0.00  -0.01     0.15  -0.17  -0.00
  12   6    -0.00  -0.00  -0.00    -0.00   0.00  -0.00     0.10   0.01   0.02
  13   1    -0.00   0.00   0.00     0.00  -0.00   0.00     0.02  -0.01   0.01
  14   1     0.00  -0.00   0.00     0.00   0.00   0.00     0.02  -0.01   0.00
  15   1     0.00  -0.00  -0.00     0.00  -0.00  -0.00     0.03  -0.01  -0.01
  16  29     0.00  -0.00   0.00     0.00  -0.00   0.00    -0.00  -0.00  -0.00
                     34                     35                     36
                        a                      a                      a 
 Frequencies --  2058.9146              2600.6465              2992.0603
 Red. masses --    99.0000                99.0000                99.0000
 Frc consts  --    99.0000                99.0000                99.0000
 IR Inten    --    99.0000                99.0000                99.0000
 Raman Activ --     0.0000                 0.0000                 0.0000
 Depolar     --     0.0000                 0.0000                 0.0000
 Atom AN      X      Y      Z        X      Y      Z        X      Y      Z
   1   7    -0.45   0.43   0.03    -0.01   0.00  -0.00    -0.00   0.00  -0.00
   2   7     0.48  -0.55  -0.05     0.01  -0.00   0.00     0.00  -0.00   0.00
   3   7    -0.03   0.11   0.01    -0.00  -0.00  -0.00    -0.00   0.00  -0.00
   4   6    -0.00   0.01   0.01     0.00   0.00  -0.00     0.00  -0.00   0.00
   5   1     0.02   0.02   0.02     0.00  -0.00   0.00     0.00  -0.00   0.01
   6   1    -0.01  -0.01  -0.00    -0.00   0.00   0.00    -0.00   0.00  -0.00
   7   1     0.01  -0.01   0.00    -0.00   0.00  -0.00     0.00   0.00  -0.00
   8   1     0.00   0.00  -0.00    -0.00  -0.00  -0.00    -0.00   0.00  -0.00
   9   6     0.18  -0.09   0.01     0.01  -0.00   0.00    -0.01   0.00   0.00
  10   6    -0.14   0.07  -0.01    -0.00   0.00  -0.00     0.00   0.00   0.00
  11   1    -0.03   0.05   0.01    -0.00   0.00  -0.00     0.00  -0.01   0.00
  12   6    -0.03   0.00  -0.00    -0.08   0.24   0.04    -0.09  -0.11   0.25
  13   1    -0.01  -0.01  -0.00    -0.02   0.03   0.03     0.43   0.53  -0.55
  14   1    -0.01   0.01   0.00     0.35  -0.88  -0.15    -0.00  -0.03   0.02
  15   1    -0.01  -0.00   0.00    -0.01   0.04  -0.01    -0.11  -0.11  -0.36
  16  29    -0.00   0.00   0.00    -0.01  -0.00  -0.00    -0.00  -0.00   0.00
                     37                     38                     39
                        a                      a                      a 
 Frequencies --  2997.6282              3014.3359              3047.3809
 Red. masses --    99.0000                99.0000                99.0000
 Frc consts  --    99.0000                99.0000                99.0000
 IR Inten    --    99.0000                99.0000                99.0000
 Raman Activ --     0.0000                 0.0000                 0.0000
 Depolar     --     0.0000                 0.0000                 0.0000
 Atom AN      X      Y      Z        X      Y      Z        X      Y      Z
   1   7    -0.00   0.00  -0.00    -0.01   0.01   0.00    -0.00   0.00   0.00
   2   7     0.00   0.00   0.00     0.01  -0.02  -0.00     0.00  -0.00   0.00
   3   7    -0.01   0.01  -0.01     0.08  -0.13   0.20     0.01  -0.00   0.00
   4   6     0.00  -0.00   0.00    -0.01   0.01  -0.01     0.24   0.12   0.05
   5   1     0.02  -0.03   0.05    -0.32   0.51  -0.75    -0.01   0.01  -0.02
   6   1    -0.00   0.00  -0.00     0.04  -0.04   0.07    -0.01   0.04  -0.05
   7   1    -0.00  -0.00   0.00     0.01   0.01  -0.00    -0.88  -0.36  -0.11
   8   1     0.00   0.00   0.00    -0.00  -0.01  -0.00     0.03  -0.11  -0.00
   9   6    -0.02   0.00  -0.00     0.00  -0.00  -0.00     0.00  -0.00  -0.00
  10   6     0.01   0.00   0.00    -0.00   0.01   0.00    -0.00  -0.00  -0.00
  11   1     0.01  -0.02  -0.00     0.01  -0.02  -0.00    -0.00   0.00   0.00
  12   6    -0.10  -0.12  -0.15    -0.01  -0.01  -0.01    -0.00  -0.00   0.00
  13   1     0.19   0.24  -0.28     0.02   0.02  -0.02     0.00   0.00  -0.00
  14   1    -0.00  -0.04  -0.02     0.00  -0.01  -0.00    -0.00   0.00   0.00
  15   1     0.21   0.21   0.83     0.01   0.01   0.05    -0.00  -0.00  -0.00
  16  29    -0.00  -0.00  -0.00     0.00  -0.00   0.00    -0.00   0.00  -0.00
                     40                     41                     42
                        a                      a                      a 
 Frequencies --  3083.5006              3090.5364              3205.2305
 Red. masses --    99.0000                99.0000                99.0000
 Frc consts  --    99.0000                99.0000                99.0000
 IR Inten    --    99.0000                99.0000                99.0000
 Raman Activ --     0.0000                 0.0000                 0.0000
 Depolar     --     0.0000                 0.0000                 0.0000
 Atom AN      X      Y      Z        X      Y      Z        X      Y      Z
   1   7     0.00  -0.00   0.00    -0.00   0.00  -0.00     0.00  -0.00  -0.00
   2   7    -0.00  -0.00  -0.00     0.00  -0.00   0.00    -0.00   0.00   0.00
   3   7     0.00  -0.01   0.02     0.00  -0.01   0.00     0.00   0.01  -0.00
   4   6     0.08  -0.06   0.21     0.07  -0.26   0.01     0.00   0.01   0.00
   5   1    -0.03   0.04  -0.06    -0.01   0.02  -0.02     0.01  -0.01   0.02
   6   1    -0.40   0.38  -0.77    -0.08   0.05  -0.15    -0.00   0.00  -0.00
   7   1     0.10   0.03   0.03    -0.10  -0.07  -0.01    -0.00  -0.00  -0.00
   8   1     0.03  -0.19  -0.00    -0.06   0.93   0.11     0.00  -0.03  -0.00
   9   6    -0.00   0.00  -0.00     0.00  -0.00   0.00     0.05  -0.03   0.00
  10   6     0.00  -0.00  -0.00    -0.00   0.01   0.00    -0.18   0.27   0.02
  11   1    -0.00   0.01   0.00     0.01  -0.02  -0.00     0.43  -0.84  -0.07
  12   6     0.00   0.00   0.00    -0.00   0.00  -0.00     0.00   0.00   0.00
  13   1    -0.00  -0.00   0.00    -0.00  -0.00   0.00    -0.01  -0.01   0.01
  14   1     0.00  -0.00  -0.00     0.00  -0.00  -0.00    -0.00   0.00  -0.00
  15   1    -0.00  -0.00  -0.00     0.00  -0.00   0.00    -0.00  -0.00  -0.01
  16  29     0.00   0.00   0.00     0.00  -0.00  -0.00     0.00  -0.00   0.00
end of file
