 Entering Gaussian System
 *********************************************
 Gaussian 98:
 frequency output generated by the crest code
 *********************************************
                         Standard orientation:
 --------------------------------------------------------------------
  Center     Atomic     Atomic              Coordinates (Angstroms)
  Number     Number      Type              X           Y           Z
 --------------------------------------------------------------------
    1          9             0        0.049784    0.000000    0.000000
    2          1             0       -0.938358    0.000000    0.000000
 --------------------------------------------------------------------
     1 basis functions        1 primitive gaussians
     1 alpha electrons        1 beta electrons

 Harmonic frequencies (cm**-1), IR intensities (km*mol⁻¹),
 Raman scattering activities (A**4/amu), Raman depolarization ratios,
 reduced masses (AMU), force constants (mDyne/A) and normal coordinates:
                      1
                        a 
 Frequencies --  3533.1374
 Red. masses --    99.0000
 Frc consts  --    99.0000
 IR Inten    --    99.0000
 Raman Activ --     0.0000
 Depolar     --     0.0000
 Atom AN      X      Y      Z        X      Y      Z        X      Y      Z
   1   9    -0.22   0.00   0.00
   2   1     0.97   0.00   0.00
end of file
