 Entering Gaussian System
 *********************************************
 Gaussian 98:
 frequency output generated by the crest code
 *********************************************
                         Standard orientation:
 --------------------------------------------------------------------
  Center     Atomic     Atomic              Coordinates (Angstroms)
  Number     Number      Type              X           Y           Z
 --------------------------------------------------------------------
    1          8             0        0.036624   -0.049470    0.025877
    2          1             0       -0.856276    0.227930    0.280276
    3          1             0        0.274924    0.557330   -0.691023
 --------------------------------------------------------------------
     1 basis functions        1 primitive gaussians
     1 alpha electrons        1 beta electrons

 Harmonic frequencies (cm**-1), IR intensities (km*mol⁻¹),
 Raman scattering activities (A**4/amu), Raman depolarization ratios,
 reduced masses (AMU), force constants (mDyne/A) and normal coordinates:
                      1                      2                      3
                        a                      a                      a 
 Frequencies --  1665.9199              3662.9967              3663.6323
 Red. masses --    99.0000                99.0000                99.0000
 Frc consts  --    99.0000                99.0000                99.0000
 IR Inten    --    99.0000                99.0000                99.0000
 Raman Activ --     0.0000                 0.0000                 0.0000
 Depolar     --     0.0000                 0.0000                 0.0000
 Atom AN      X      Y      Z        X      Y      Z        X      Y      Z
   1   8    -0.14   0.19  -0.10     0.11  -0.16   0.09    -0.20  -0.05   0.17
   2   1    -0.04  -0.48   0.48    -0.61   0.18   0.18     0.65  -0.20  -0.19
   3   1     0.61  -0.29  -0.08     0.19   0.44  -0.53     0.16   0.41  -0.48
end of file
